ITEM: TIMESTEP
415000
ITEM: NUMBER OF ATOMS
1
ITEM: BOX BOUNDS mm mm mm
-8.4907939792903147e+00 9.0505346943889471e+00
-7.8769503445349951e+00 9.6248673006926726e+00
-8.2915399999999995e+00 8.8136852613398133e+00
ITEM: ATOMS id type v_atom_cmx v_atom_cmy v_atom_cmz
866 2 0.347896 1.04446 0.940678
ITEM: TIMESTEP
416000
ITEM: NUMBER OF ATOMS
1
ITEM: BOX BOUNDS mm mm mm
-9.2255448393291672e+00 8.9093944690968723e+00
-7.9383662472964494e+00 9.6102832598697674e+00
-8.2915399999999995e+00 8.8225788105641563e+00
ITEM: ATOMS id type v_atom_cmx v_atom_cmy v_atom_cmz
866 2 0.225958 1.01893 0.943879
ITEM: TIMESTEP
417000
ITEM: NUMBER OF ATOMS
1
ITEM: BOX BOUNDS mm mm mm
-9.2516673706471160e+00 8.8891455537528703e+00
-7.8496623221429340e+00 9.5973504151725209e+00
-8.2915399999999995e+00 9.0148424053490590e+00
ITEM: ATOMS id type v_atom_cmx v_atom_cmy v_atom_cmz
866 2 0.127796 1.03716 0.956233
ITEM: TIMESTEP
418000
ITEM: NUMBER OF ATOMS
1
ITEM: BOX BOUNDS mm mm mm
-9.4101018164199903e+00 8.9718448698743654e+00
-7.7801078281524836e+00 9.6802097326591809e+00
-8.2915399999999995e+00 8.8785587385229352e+00
ITEM: ATOMS id type v_atom_cmx v_atom_cmy v_atom_cmz
866 2 -0.00791963 1.04222 0.914817
ITEM: TIMESTEP
419000
ITEM: NUMBER OF ATOMS
1
ITEM: BOX BOUNDS mm mm mm
-9.2208481354204022e+00 8.6668036892935003e+00
-7.7300980598233693e+00 9.7043414424234236e+00
-8.2915399999999995e+00 8.7540745493149306e+00
ITEM: ATOMS id type v_atom_cmx v_atom_cmy v_atom_cmz
866 2 -0.194276 1.04732 0.896224
ITEM: TIMESTEP
420000
ITEM: NUMBER OF ATOMS
1
ITEM: BOX BOUNDS mm mm mm
-9.2916109893665197e+00 8.6726494059669648e+00
-7.7828985547523022e+00 9.7310162686672150e+00
-8.2915399999999995e+00 8.7730797484305185e+00
ITEM: ATOMS id type v_atom_cmx v_atom_cmy v_atom_cmz
866 2 -0.386338 1.06337 0.864293
ITEM: TIMESTEP
421000
ITEM: NUMBER OF ATOMS
1
ITEM: BOX BOUNDS mm mm mm
-9.5496968816780790e+00 8.3181664490810423e+00
-7.7099975855758904e+00 9.7784142921500319e+00
-8.2915399999999995e+00 8.9539055095362610e+00
ITEM: ATOMS id type v_atom_cmx v_atom_cmy v_atom_cmz
866 2 -0.546656 1.0908 0.831089
ITEM: TIMESTEP
422000
ITEM: NUMBER OF ATOMS
1
ITEM: BOX BOUNDS mm mm mm
-9.1897146281524922e+00 8.3815238708152329e+00
-7.7829450383521026e+00 9.8066849445372775e+00
-8.2915399999999995e+00 9.4438536007522949e+00
ITEM: ATOMS id type v_atom_cmx v_atom_cmy v_atom_cmz
866 2 -0.712231 1.117 0.864258
ITEM: TIMESTEP
423000
ITEM: NUMBER OF ATOMS
1
ITEM: BOX BOUNDS mm mm mm
-9.4436996295049909e+00 8.3107053293169777e+00
-7.7044234427624039e+00 9.7686680329119717e+00
-8.2915399999999995e+00 9.2530856311808360e+00
ITEM: ATOMS id type v_atom_cmx v_atom_cmy v_atom_cmz
866 2 -0.899505 1.15886 0.88848
ITEM: TIMESTEP
424000
ITEM: NUMBER OF ATOMS
1
ITEM: BOX BOUNDS mm mm mm
-9.5738886340536382e+00 7.9160948852209669e+00
-7.7378182820390888e+00 9.7596151047637587e+00
-8.2915399999999995e+00 9.0790195684364861e+00
ITEM: ATOMS id type v_atom_cmx v_atom_cmy v_atom_cmz
866 2 -1.16185 1.18923 0.901293
ITEM: TIMESTEP
425000
ITEM: NUMBER OF ATOMS
1
ITEM: BOX BOUNDS mm mm mm
-1.0309921385583921e+01 7.6653050537276188e+00
-7.7702971596785808e+00 9.7992579485794060e+00
-8.2915399999999995e+00 9.1005213280977699e+00
ITEM: ATOMS id type v_atom_cmx v_atom_cmy v_atom_cmz
866 2 -1.36865 1.19233 0.903052
ITEM: TIMESTEP
426000
ITEM: NUMBER OF ATOMS
1
ITEM: BOX BOUNDS mm mm mm
-1.0687745103867371e+01 7.4369645128210591e+00
-7.7982107332650807e+00 9.8645061399716560e+00
-8.2915399999999995e+00 9.0570030315776595e+00
ITEM: ATOMS id type v_atom_cmx v_atom_cmy v_atom_cmz
866 2 -1.6259 1.19284 0.92827
ITEM: TIMESTEP
427000
ITEM: NUMBER OF ATOMS
1
ITEM: BOX BOUNDS mm mm mm
-1.0793265509611327e+01 7.3412307910276482e+00
-8.0700622636058963e+00 9.8907001539436141e+00
-8.2915399999999995e+00 9.1461919041771100e+00
ITEM: ATOMS id type v_atom_cmx v_atom_cmy v_atom_cmz
866 2 -1.81393 1.19249 0.939531
ITEM: TIMESTEP
428000
ITEM: NUMBER OF ATOMS
1
ITEM: BOX BOUNDS mm mm mm
-1.0835915523348387e+01 7.1059107694860240e+00
-8.1764069663299388e+00 9.8397461784568669e+00
-8.2915399999999995e+00 9.1195211930659372e+00
ITEM: ATOMS id type v_atom_cmx v_atom_cmy v_atom_cmz
866 2 -2.04289 1.19354 0.927117
ITEM: TIMESTEP
429000
ITEM: NUMBER OF ATOMS
1
ITEM: BOX BOUNDS mm mm mm
-1.1310492638665975e+01 7.0000000000000000e+00
-8.2029248280344529e+00 9.7553063828513213e+00
-8.2915399999999995e+00 9.3019183558141272e+00
ITEM: ATOMS id type v_atom_cmx v_atom_cmy v_atom_cmz
866 2 -2.31923 1.19899 0.911417
ITEM: TIMESTEP
430000
ITEM: NUMBER OF ATOMS
1
ITEM: BOX BOUNDS mm mm mm
-1.1708134829071538e+01 7.0000000000000000e+00
-8.1820236912140789e+00 9.8317868234605221e+00
-8.2915399999999995e+00 9.0617012919003024e+00
ITEM: ATOMS id type v_atom_cmx v_atom_cmy v_atom_cmz
866 2 -2.5886 1.20949 0.876282
ITEM: TIMESTEP
431000
ITEM: NUMBER OF ATOMS
1
ITEM: BOX BOUNDS mm mm mm
-1.1539442437644412e+01 7.0000000000000000e+00
-8.3035607958081048e+00 9.8913670010562775e+00
-8.2915399999999995e+00 9.1333180005065095e+00
ITEM: ATOMS id type v_atom_cmx v_atom_cmy v_atom_cmz
866 2 -2.85592 1.22051 0.910128
ITEM: TIMESTEP
432000
ITEM: NUMBER OF ATOMS
1
ITEM: BOX BOUNDS mm mm mm
-1.1647546445379383e+01 7.0000000000000000e+00
-8.2103093435888486e+00 1.0000792421403013e+01
-8.2915399999999995e+00 9.1768485815656948e+00
ITEM: ATOMS id type v_atom_cmx v_atom_cmy v_atom_cmz
866 2 -3.11801 1.22036 0.923234
ITEM: TIMESTEP
433000
ITEM: NUMBER OF ATOMS
1
ITEM: BOX BOUNDS mm mm mm
-1.2096598015763767e+01 7.0000000000000000e+00
-8.2443655348856222e+00 1.0105972259210791e+01
-8.2915399999999995e+00 9.2670552026145501e+00
ITEM: ATOMS id type v_atom_cmx v_atom_cmy v_atom_cmz
866 2 -3.38668 1.2537 0.944479
ITEM: TIMESTEP
434000
ITEM: NUMBER OF ATOMS
1
ITEM: BOX BOUNDS mm mm mm
-1.2951866176877626e+01 7.0000000000000000e+00
-8.1599328392428383e+00 1.0141304588533941e+01
-8.2915399999999995e+00 9.2506825949184233e+00
ITEM: ATOMS id type v_atom_cmx v_atom_cmy v_atom_cmz
866 2 -3.71304 1.23056 0.91236
ITEM: TIMESTEP
435000
ITEM: NUMBER OF ATOMS
1
ITEM: BOX BOUNDS mm mm mm
-1.2918490142359047e+01 7.0000000000000000e+00
-8.0044501470569447e+00 1.0502356472632478e+01
-8.2915399999999995e+00 9.1982587454105396e+00
ITEM: ATOMS id type v_atom_cmx v_atom_cmy v_atom_cmz
866 2 -4.01436 1.22684 0.886435
ITEM: TIMESTEP
436000
ITEM: NUMBER OF ATOMS
1
ITEM: BOX BOUNDS mm mm mm
-1.3253137236922202e+01 7.0000000000000000e+00
-7.5009106918983788e+00 1.0336284418200972e+01
-8.2915399999999995e+00 9.3323053592431311e+00
ITEM: ATOMS id type v_atom_cmx v_atom_cmy v_atom_cmz
866 2 -4.33746 1.19217 0.921467
ITEM: TIMESTEP
437000
ITEM: NUMBER OF ATOMS
1
ITEM: BOX BOUNDS mm mm mm
-1.3145696347584325e+01 7.0000000000000000e+00
-7.5842073632688836e+00 1.0164396440737800e+01
-8.2915399999999995e+00 9.3599115435418749e+00
ITEM: ATOMS id type v_atom_cmx v_atom_cmy v_atom_cmz
866 2 -4.63364 1.17709 0.970139
ITEM: TIMESTEP
438000
ITEM: NUMBER OF ATOMS
1
ITEM: BOX BOUNDS mm mm mm
-1.4036306349938544e+01 7.0000000000000000e+00
-7.7934242120561201e+00 1.0022675527103120e+01
-8.2915399999999995e+00 9.4287474969498248e+00
ITEM: ATOMS id type v_atom_cmx v_atom_cmy v_atom_cmz
866 2 -4.96409 1.12969 0.998536
ITEM: TIMESTEP
439000
ITEM: NUMBER OF ATOMS
1
ITEM: BOX BOUNDS mm mm mm
-1.4109806898664944e+01 7.0000000000000000e+00
-7.5300359161392771e+00 9.8062573583859205e+00
-8.2915399999999995e+00 9.5069943298987400e+00
ITEM: ATOMS id type v_atom_cmx v_atom_cmy v_atom_cmz
866 2 -5.31085 1.10872 1.00197
ITEM: TIMESTEP
440000
ITEM: NUMBER OF ATOMS
1
ITEM: BOX BOUNDS mm mm mm
-1.4419780689746407e+01 7.0000000000000000e+00
-7.6619642535016341e+00 9.8740767966135756e+00
-8.2915399999999995e+00 9.5354081555230668e+00
ITEM: ATOMS id type v_atom_cmx v_atom_cmy v_atom_cmz
866 2 -5.69156 1.09788 1.00469
ITEM: TIMESTEP
441000
ITEM: NUMBER OF ATOMS
1
ITEM: BOX BOUNDS mm mm mm
-1.4868597482679970e+01 7.0000000000000000e+00
-7.6530646062400969e+00 9.8345215854116219e+00
-8.2915399999999995e+00 9.7094454884658585e+00
ITEM: ATOMS id type v_atom_cmx v_atom_cmy v_atom_cmz
866 2 -6.06593 1.09965 1.01903
ITEM: TIMESTEP
442000
ITEM: NUMBER OF ATOMS
1
ITEM: BOX BOUNDS mm mm mm
-1.4611542838404679e+01 7.0000000000000000e+00
-7.6875332137372743e+00 9.6452698321250665e+00
-8.2915399999999995e+00 9.6599966477513650e+00
ITEM: ATOMS id type v_atom_cmx v_atom_cmy v_atom_cmz
866 2 -6.41214 1.08017 0.983267
ITEM: TIMESTEP
443000
ITEM: NUMBER OF ATOMS
1
ITEM: BOX BOUNDS mm mm mm
-1.5094662566133811e+01 7.0000000000000000e+00
-7.7494990604233136e+00 9.5647595408435606e+00
-8.2915399999999995e+00 9.7053969062603436e+00
ITEM: ATOMS id type v_atom_cmx v_atom_cmy v_atom_cmz
866 2 -6.77878 1.08307 0.970485
ITEM: TIMESTEP
444000
ITEM: NUMBER OF ATOMS
1
ITEM: BOX BOUNDS mm mm mm
-1.5489737838465869e+01 7.0000000000000000e+00
-7.7161316923359289e+00 9.6330729480361228e+00
-8.2915399999999995e+00 9.9335156375004505e+00
ITEM: ATOMS id type v_atom_cmx v_atom_cmy v_atom_cmz
866 2 -7.12461 1.07578 0.931998
ITEM: TIMESTEP
445000
ITEM: NUMBER OF ATOMS
1
ITEM: BOX BOUNDS mm mm mm
-1.5837862322330773e+01 7.0000000000000000e+00
-7.8067329179764089e+00 9.6550971813988333e+00
-8.2915399999999995e+00 9.9270702820027825e+00
ITEM: ATOMS id type v_atom_cmx v_atom_cmy v_atom_cmz
866 2 -7.50782 1.02816 0.932403
ITEM: TIMESTEP
446000
ITEM: NUMBER OF ATOMS
1
ITEM: BOX BOUNDS mm mm mm
-1.6372973370736407e+01 7.0000000000000000e+00
-7.9095169173425237e+00 9.6154666044412505e+00
-8.2915399999999995e+00 9.7236343645322183e+00
ITEM: ATOMS id type v_atom_cmx v_atom_cmy v_atom_cmz
866 2 -7.85499 1.00385 0.941613
ITEM: TIMESTEP
447000
ITEM: NUMBER OF ATOMS
1
ITEM: BOX BOUNDS mm mm mm
-1.6551614349853580e+01 7.0000000000000000e+00
-7.8901132808638303e+00 9.6360007593328838e+00
-8.2915399999999995e+00 9.6505205685269928e+00
ITEM: ATOMS id type v_atom_cmx v_atom_cmy v_atom_cmz
866 2 -8.24 0.92971 0.894413
ITEM: TIMESTEP
448000
ITEM: NUMBER OF ATOMS
1
ITEM: BOX BOUNDS mm mm mm
-1.7141753001398040e+01 7.0000000000000000e+00
-7.8641816852678206e+00 9.7711467702276167e+00
-8.2915399999999995e+00 9.7502521098343848e+00
ITEM: ATOMS id type v_atom_cmx v_atom_cmy v_atom_cmz
866 2 -8.58474 0.953303 0.893109
ITEM: TIMESTEP
449000
ITEM: NUMBER OF ATOMS
1
ITEM: BOX BOUNDS mm mm mm
-1.7334215344693042e+01 7.0000000000000000e+00
-7.9627362525858389e+00 9.6313742922921346e+00
-8.2915399999999995e+00 9.7874206241531052e+00
ITEM: ATOMS id type v_atom_cmx v_atom_cmy v_atom_cmz
866 2 -8.98909 0.949756 0.910014
ITEM: TIMESTEP
450000
ITEM: NUMBER OF ATOMS
1
ITEM: BOX BOUNDS mm mm mm
-1.7814952865991362e+01 7.0000000000000000e+00
-7.9455018335995868e+00 9.4370227820812023e+00
-8.2915399999999995e+00 9.7415103082260117e+00
ITEM: ATOMS id type v_atom_cmx v_atom_cmy v_atom_cmz
866 2 -9.37238 0.980683 0.91477
ITEM: TIMESTEP
451000
ITEM: NUMBER OF ATOMS
1
ITEM: BOX BOUNDS mm mm mm
-1.8279134931210031e+01 7.0000000000000000e+00
-7.9552612772076996e+00 9.5703003763822831e+00
-8.2915399999999995e+00 9.8011713177357027e+00
ITEM: ATOMS id type v_atom_cmx v_atom_cmy v_atom_cmz
866 2 -9.74856 1.0117 0.882004
ITEM: TIMESTEP
452000
ITEM: NUMBER OF ATOMS
1
ITEM: BOX BOUNDS mm mm mm
-1.8440121209125603e+01 7.0000000000000000e+00
-8.0324706535995389e+00 9.5915271050514566e+00
-8.2915399999999995e+00 9.8269647331018408e+00
ITEM: ATOMS id type v_atom_cmx v_atom_cmy v_atom_cmz
866 2 -10.1716 0.998396 0.919863
ITEM: TIMESTEP
453000
ITEM: NUMBER OF ATOMS
1
ITEM: BOX BOUNDS mm mm mm
-1.8711949676128686e+01 7.0000000000000000e+00
-8.1314546947894684e+00 9.7032494892436958e+00
-8.2915399999999995e+00 9.8560601765719387e+00
ITEM: ATOMS id type v_atom_cmx v_atom_cmy v_atom_cmz
866 2 -10.5622 0.945297 0.908703
ITEM: TIMESTEP
454000
ITEM: NUMBER OF ATOMS
1
ITEM: BOX BOUNDS mm mm mm
-1.8826288818451467e+01 7.0000000000000000e+00
-7.9737030108093840e+00 9.6967243497668356e+00
-8.2915399999999995e+00 9.9133122339120412e+00
ITEM: ATOMS id type v_atom_cmx v_atom_cmy v_atom_cmz
866 2 -10.9476 0.942836 0.907817
ITEM: TIMESTEP
455000
ITEM: NUMBER OF ATOMS
1
ITEM: BOX BOUNDS mm mm mm
-1.9624070162769129e+01 7.0000000000000000e+00
-7.8882744746866198e+00 9.6247786557997621e+00
-8.2915399999999995e+00 1.0059078661964829e+01
ITEM: ATOMS id type v_atom_cmx v_atom_cmy v_atom_cmz
866 2 -11.3364 0.919213 0.886497
ITEM: TIMESTEP
456000
ITEM: NUMBER OF ATOMS
1
ITEM: BOX BOUNDS mm mm mm
-2.0234018652187853e+01 7.0000000000000000e+00
-7.9056480757922261e+00 9.6751857980668206e+00
-8.2915399999999995e+00 9.9651350432914239e+00
ITEM: ATOMS id type v_atom_cmx v_atom_cmy v_atom_cmz
866 2 -11.7311 0.87487 0.894396
ITEM: TIMESTEP
457000
ITEM: NUMBER OF ATOMS
1
ITEM: BOX BOUNDS mm mm mm
-2.0412976259228259e+01 7.0000000000000000e+00
-7.9366192665414470e+00 9.5595810163122312e+00
-8.2915399999999995e+00 9.6983515225883501e+00
ITEM: ATOMS id type v_atom_cmx v_atom_cmy v_atom_cmz
866 2 -12.1108 0.884946 0.8996
ITEM: TIMESTEP
458000
ITEM: NUMBER OF ATOMS
1
ITEM: BOX BOUNDS mm mm mm
-2.0762215392197373e+01 7.0000000000000000e+00
-7.9485972311657314e+00 9.5656830282466991e+00
-8.2915399999999995e+00 9.6384666149212013e+00
ITEM: ATOMS id type v_atom_cmx v_atom_cmy v_atom_cmz
866 2 -12.4814 0.88264 0.896966
ITEM: TIMESTEP
459000
ITEM: NUMBER OF ATOMS
1
ITEM: BOX BOUNDS mm mm mm
-2.1323537123670409e+01 7.0000000000000000e+00
-7.9113740166122897e+00 9.6021353087394488e+00
-8.2915399999999995e+00 9.6766734765426197e+00
ITEM: ATOMS id type v_atom_cmx v_atom_cmy v_atom_cmz
866 2 -12.8865 0.831843 0.920367
ITEM: TIMESTEP
460000
ITEM: NUMBER OF ATOMS
1
ITEM: BOX BOUNDS mm mm mm
-2.1774139623418471e+01 7.0000000000000000e+00
-7.9093551283897110e+00 9.5482168411880881e+00
-8.2915399999999995e+00 9.6513683014652791e+00
ITEM: ATOMS id type v_atom_cmx v_atom_cmy v_atom_cmz
866 2 -13.2647 0.74877 0.946261
ITEM: TIMESTEP
461000
ITEM: NUMBER OF ATOMS
1
ITEM: BOX BOUNDS mm mm mm
-2.2295786681029657e+01 7.0000000000000000e+00
-8.1166035984095348e+00 9.5946197488300111e+00
-8.2915399999999995e+00 9.5148998279836050e+00
ITEM: ATOMS id type v_atom_cmx v_atom_cmy v_atom_cmz
866 2 -13.6497 0.719744 0.916305
ITEM: TIMESTEP
462000
ITEM: NUMBER OF ATOMS
1
ITEM: BOX BOUNDS mm mm mm
-2.2677107388570921e+01 7.0000000000000000e+00
-7.9960073998669996e+00 9.6367152769376663e+00
-8.2915399999999995e+00 9.6689112278679730e+00
ITEM: ATOMS id type v_atom_cmx v_atom_cmy v_atom_cmz
866 2 -14.025 0.691546 0.87154
ITEM: TIMESTEP
463000
ITEM: NUMBER OF ATOMS
1
ITEM: BOX BOUNDS mm mm mm
-2.3041834238991104e+01 7.0000000000000000e+00
-7.8222351179621077e+00 9.6501808162239957e+00
-8.2915399999999995e+00 9.7356254868068604e+00
ITEM: ATOMS id type v_atom_cmx v_atom_cmy v_atom_cmz
866 2 -14.4391 0.713655 0.813514
ITEM: TIMESTEP
464000
ITEM: NUMBER OF ATOMS
1
ITEM: BOX BOUNDS mm mm mm
-2.3332816447464584e+01 7.0000000000000000e+00
-7.7922008569261374e+00 9.5619866493300307e+00
-8.2915399999999995e+00 9.5875924132207917e+00
ITEM: ATOMS id type v_atom_cmx v_atom_cmy v_atom_cmz
866 2 -14.8082 0.703296 0.82748
ITEM: TIMESTEP
465000
ITEM: NUMBER OF ATOMS
1
ITEM: BOX BOUNDS mm mm mm
-2.3373321615764510e+01 7.0000000000000000e+00
-7.8446831048212227e+00 9.3730241365099634e+00
-8.2915399999999995e+00 9.6354190619398761e+00
ITEM: ATOMS id type v_atom_cmx v_atom_cmy v_atom_cmz
866 2 -15.2086 0.643624 0.814524
ITEM: TIMESTEP
466000
ITEM: NUMBER OF ATOMS
1
ITEM: BOX BOUNDS mm mm mm
-2.3639980808071027e+01 7.0000000000000000e+00
-8.1132999885672881e+00 9.2642720652153763e+00
-8.2915399999999995e+00 9.6183704848569533e+00
ITEM: ATOMS id type v_atom_cmx v_atom_cmy v_atom_cmz
866 2 -15.5849 0.649232 0.825677
ITEM: TIMESTEP
467000
ITEM: NUMBER OF ATOMS
1
ITEM: BOX BOUNDS mm mm mm
-2.4425382852883811e+01 7.0000000000000000e+00
-8.0109554527335973e+00 9.4121430543080891e+00
-8.2915399999999995e+00 9.4707122054946371e+00
ITEM: ATOMS id type v_atom_cmx v_atom_cmy v_atom_cmz
866 2 -15.9542 0.645337 0.808972
ITEM: TIMESTEP
468000
ITEM: NUMBER OF ATOMS
1
ITEM: BOX BOUNDS mm mm mm
-2.4490891777031852e+01 7.0000000000000000e+00
-8.0337804337826952e+00 9.4260368536849839e+00
-8.3047544238405155e+00 9.4877728303989901e+00
ITEM: ATOMS id type v_atom_cmx v_atom_cmy v_atom_cmz
866 2 -16.2972 0.630527 0.799217
ITEM: TIMESTEP
469000
ITEM: NUMBER OF ATOMS
1
ITEM: BOX BOUNDS mm mm mm
-2.5750773746918586e+01 7.0000000000000000e+00
-8.0746458104060679e+00 9.3912678283032527e+00
-8.3218093503869941e+00 9.8371663933227769e+00
ITEM: ATOMS id type v_atom_cmx v_atom_cmy v_atom_cmz
866 2 -16.7075 0.642577 0.751001
ITEM: TIMESTEP
470000
ITEM: NUMBER OF ATOMS
1
ITEM: BOX BOUNDS mm mm mm
-2.5728335779273916e+01 7.0000000000000000e+00
-8.0593374316191149e+00 9.3236911616499469e+00
-8.4543600902888176e+00 9.9834193932148914e+00
ITEM: ATOMS id type v_atom_cmx v_atom_cmy v_atom_cmz
866 2 -17.0796 0.65455 0.726147
ITEM: TIMESTEP
471000
ITEM: NUMBER OF ATOMS
1
ITEM: BOX BOUNDS mm mm mm
-2.5776798474142360e+01 7.0000000000000000e+00
-7.9151906262934233e+00 9.3933396664932225e+00
-8.8651584380947437e+00 9.8621599741001074e+00
ITEM: ATOMS id type v_atom_cmx v_atom_cmy v_atom_cmz
866 2 -17.4471 0.667824 0.688942
ITEM: TIMESTEP
472000
ITEM: NUMBER OF ATOMS
1
ITEM: BOX BOUNDS mm mm mm
-2.5956807540253386e+01 7.0000000000000000e+00
-8.0840506466033055e+00 9.4289776860430976e+00
-8.7854757046096559e+00 9.8887451319536748e+00
ITEM: ATOMS id type v_atom_cmx v_atom_cmy v_atom_cmz
866 2 -17.8013 0.655464 0.631195
ITEM: TIMESTEP
473000
ITEM: NUMBER OF ATOMS
1
ITEM: BOX BOUNDS mm mm mm
-2.6260989884240313e+01 7.0000000000000000e+00
-8.0761761915893562e+00 9.4906578836355600e+00
-8.8194944914407429e+00 9.9777515216168364e+00
ITEM: ATOMS id type v_atom_cmx v_atom_cmy v_atom_cmz
866 2 -18.1694 0.68721 0.617282
ITEM: TIMESTEP
474000
ITEM: NUMBER OF ATOMS
1
ITEM: BOX BOUNDS mm mm mm
-2.6426700559825605e+01 7.0000000000000000e+00
-8.0210970022143808e+00 9.3652712214381388e+00
-8.6495139215330266e+00 9.9586972747677152e+00
ITEM: ATOMS id type v_atom_cmx v_atom_cmy v_atom_cmz
866 2 -18.5661 0.74305 0.656598
ITEM: TIMESTEP
475000
ITEM: NUMBER OF ATOMS
1
ITEM: BOX BOUNDS mm mm mm
-2.7204068939478983e+01 7.0000000000000000e+00
-8.2242495857886286e+00 9.6304873004796949e+00
-8.7751095483919670e+00 9.9462465177856760e+00
ITEM: ATOMS id type v_atom_cmx v_atom_cmy v_atom_cmz
866 2 -18.9399 0.791133 0.709842
ITEM: TIMESTEP
476000
ITEM: NUMBER OF ATOMS
1
ITEM: BOX BOUNDS mm mm mm
-2.7271250785489372e+01 7.0000000000000000e+00
-8.1440332437057030e+00 9.6648920419887201e+00
-8.7258612122342800e+00 9.7525524059974309e+00
ITEM: ATOMS id type v_atom_cmx v_atom_cmy v_atom_cmz
866 2 -19.3245 0.822881 0.698627
ITEM: TIMESTEP
477000
ITEM: NUMBER OF ATOMS
1
ITEM: BOX BOUNDS mm mm mm
-2.7818971518037529e+01 7.0000000000000000e+00
-8.1943069135983446e+00 9.7129544574403592e+00
-8.5343062769803737e+00 9.4576194084415093e+00
ITEM: ATOMS id type v_atom_cmx v_atom_cmy v_atom_cmz
866 2 -19.6753 0.835438 0.707208
ITEM: TIMESTEP
478000
ITEM: NUMBER OF ATOMS
1
ITEM: BOX BOUNDS mm mm mm
-2.8168966560786959e+01 7.0000000000000000e+00
-8.2088249194970135e+00 9.6943038931429726e+00
-8.3317836404638737e+00 9.5531971691839797e+00
ITEM: ATOMS id type v_atom_cmx v_atom_cmy v_atom_cmz
866 2 -20.051 0.833336 0.723316
ITEM: TIMESTEP
479000
ITEM: NUMBER OF ATOMS
1
ITEM: BOX BOUNDS mm mm mm
-2.8481935692406484e+01 7.0000000000000000e+00
-8.3204065489144057e+00 9.6596278366659636e+00
-8.4716230957068817e+00 9.4254534420792275e+00
ITEM: ATOMS id type v_atom_cmx v_atom_cmy v_atom_cmz
866 2 -20.4228 0.784304 0.74061
ITEM: TIMESTEP
480000
ITEM: NUMBER OF ATOMS
1
ITEM: BOX BOUNDS mm mm mm
-2.9121995784562404e+01 7.0000000000000000e+00
-8.4569668122246160e+00 9.6438485163521079e+00
-8.5073941353298501e+00 9.3648921599671784e+00
ITEM: ATOMS id type v_atom_cmx v_atom_cmy v_atom_cmz
866 2 -20.7993 0.758801 0.708167
ITEM: TIMESTEP
481000
ITEM: NUMBER OF ATOMS
1
ITEM: BOX BOUNDS mm mm mm
-2.9240535280293134e+01 7.0000000000000000e+00
-8.6360836329553070e+00 9.4704600065483291e+00
-8.5298367703116824e+00 9.4234434072873423e+00
ITEM: ATOMS id type v_atom_cmx v_atom_cmy v_atom_cmz
866 2 -21.1786 0.761975 0.676797
ITEM: TIMESTEP
482000
ITEM: NUMBER OF ATOMS
1
ITEM: BOX BOUNDS mm mm mm
-2.9667431738027197e+01 7.0000000000000000e+00
-8.6469560141131119e+00 9.1859606509628584e+00
-8.3202392130673211e+00 9.3495079281533968e+00
ITEM: ATOMS id type v_atom_cmx v_atom_cmy v_atom_cmz
866 2 -21.5185 0.741472 0.726207
ITEM: TIMESTEP
483000
ITEM: NUMBER OF ATOMS
1
ITEM: BOX BOUNDS mm mm mm
-3.0228371496080346e+01 7.0000000000000000e+00
-8.7742046287149957e+00 9.2850550530916252e+00
-8.2915399999999995e+00 9.5730246518861897e+00
ITEM: ATOMS id type v_atom_cmx v_atom_cmy v_atom_cmz
866 2 -21.8857 0.780773 0.736329
ITEM: TIMESTEP
484000
ITEM: NUMBER OF ATOMS
1
ITEM: BOX BOUNDS mm mm mm
-3.0828175130689019e+01 7.0000000000000000e+00
-8.8660907390968688e+00 9.4444386650937648e+00
-8.2915399999999995e+00 9.4527386115165140e+00
ITEM: ATOMS id type v_atom_cmx v_atom_cmy v_atom_cmz
866 2 -22.261 0.841658 0.741218
ITEM: TIMESTEP
485000
ITEM: NUMBER OF ATOMS
1
ITEM: BOX BOUNDS mm mm mm
-3.0753498966872616e+01 7.0000000000000000e+00
-8.7553400721729346e+00 9.5660161065096023e+00
-8.2915399999999995e+00 9.5008462734381638e+00
ITEM: ATOMS id type v_atom_cmx v_atom_cmy v_atom_cmz
866 2 -22.6203 0.87557 0.742479
ITEM: TIMESTEP
486000
ITEM: NUMBER OF ATOMS
1
ITEM: BOX BOUNDS mm mm mm
-3.1105941690587606e+01 7.0000000000000000e+00
-8.6955597252620294e+00 9.6203401836456326e+00
-8.2915399999999995e+00 9.4648258732165260e+00
ITEM: ATOMS id type v_atom_cmx v_atom_cmy v_atom_cmz
866 2 -22.9662 0.942316 0.753384
ITEM: TIMESTEP
487000
ITEM: NUMBER OF ATOMS
1
ITEM: BOX BOUNDS mm mm mm
-3.1572405433961201e+01 7.0000000000000000e+00
-8.5537486466293835e+00 9.4485441147427558e+00
-8.2915399999999995e+00 9.5225363164180248e+00
ITEM: ATOMS id type v_atom_cmx v_atom_cmy v_atom_cmz
866 2 -23.3465 0.981125 0.752359
ITEM: TIMESTEP
488000
ITEM: NUMBER OF ATOMS
1
ITEM: BOX BOUNDS mm mm mm
-3.1669062498692497e+01 7.0000000000000000e+00
-8.5211598909368540e+00 9.4910100307144294e+00
-8.2915399999999995e+00 9.7474044397583768e+00
ITEM: ATOMS id type v_atom_cmx v_atom_cmy v_atom_cmz
866 2 -23.7222 0.999899 0.738574
ITEM: TIMESTEP
489000
ITEM: NUMBER OF ATOMS
1
ITEM: BOX BOUNDS mm mm mm
-3.2181680517729681e+01 7.0000000000000000e+00
-7.8845073486049779e+00 9.5483337097247283e+00
-8.2915399999999995e+00 9.7343948752536633e+00
ITEM: ATOMS id type v_atom_cmx v_atom_cmy v_atom_cmz
866 2 -24.0988 1.09088 0.745791
ITEM: TIMESTEP
490000
ITEM: NUMBER OF ATOMS
1
ITEM: BOX BOUNDS mm mm mm
-3.2869754816562647e+01 7.0000000000000000e+00
-7.6778349700732509e+00 9.5431357946252309e+00
-8.2915399999999995e+00 9.7204882222833398e+00
ITEM: ATOMS id type v_atom_cmx v_atom_cmy v_atom_cmz
866 2 -24.4657 1.1479 0.78735
ITEM: TIMESTEP
491000
ITEM: NUMBER OF ATOMS
1
ITEM: BOX BOUNDS mm mm mm
-3.3255838065359448e+01 7.0000000000000000e+00
-7.7595962703076422e+00 9.7574752709509678e+00
-8.2915399999999995e+00 9.7449554856224267e+00
ITEM: ATOMS id type v_atom_cmx v_atom_cmy v_atom_cmz
866 2 -24.8753 1.20721 0.816526
ITEM: TIMESTEP
492000
ITEM: NUMBER OF ATOMS
1
ITEM: BOX BOUNDS mm mm mm
-3.3559688691197721e+01 7.0000000000000000e+00
-7.8539652642969662e+00 9.7707911703578905e+00
-8.2915399999999995e+00 9.9468329051069695e+00
ITEM: ATOMS id type v_atom_cmx v_atom_cmy v_atom_cmz
866 2 -25.2722 1.28157 0.856484
ITEM: TIMESTEP
493000
ITEM: NUMBER OF ATOMS
1
ITEM: BOX BOUNDS mm mm mm
-3.3649371041569509e+01 7.0000000000000000e+00
-7.7849370019693653e+00 9.9726189581337721e+00
-8.2915399999999995e+00 9.9702199768650068e+00
ITEM: ATOMS id type v_atom_cmx v_atom_cmy v_atom_cmz
866 2 -25.6802 1.28058 0.891031
ITEM: TIMESTEP
494000
ITEM: NUMBER OF ATOMS
1
ITEM: BOX BOUNDS mm mm mm
-3.4083729244707804e+01 7.0000000000000000e+00
-7.7449944234169816e+00 1.0313191831063799e+01
-8.2915399999999995e+00 9.7942100851336740e+00
ITEM: ATOMS id type v_atom_cmx v_atom_cmy v_atom_cmz
866 2 -26.0798 1.34048 0.969169
ITEM: TIMESTEP
495000
ITEM: NUMBER OF ATOMS
1
ITEM: BOX BOUNDS mm mm mm
-3.4875924260112988e+01 7.0000000000000000e+00
-7.7608966253461418e+00 1.0253736181257729e+01
-8.2915399999999995e+00 9.9912477089585359e+00
ITEM: ATOMS id type v_atom_cmx v_atom_cmy v_atom_cmz
866 2 -26.4611 1.33727 1.03516
ITEM: TIMESTEP
496000
ITEM: NUMBER OF ATOMS
1
ITEM: BOX BOUNDS mm mm mm
-3.5030256240437325e+01 7.0000000000000000e+00
-7.6942904498212892e+00 1.0338721770789755e+01
-8.2915399999999995e+00 1.0013084046716104e+01
ITEM: ATOMS id type v_atom_cmx v_atom_cmy v_atom_cmz
866 2 -26.8347 1.3463 1.06498
ITEM: TIMESTEP
497000
ITEM: NUMBER OF ATOMS
1
ITEM: BOX BOUNDS mm mm mm
-3.5216330360982411e+01 7.0000000000000000e+00
-7.5998941052835525e+00 1.0112005652986857e+01
-8.2915399999999995e+00 1.0285011775617789e+01
ITEM: ATOMS id type v_atom_cmx v_atom_cmy v_atom_cmz
866 2 -27.2039 1.3606 1.0876
ITEM: TIMESTEP
498000
ITEM: NUMBER OF ATOMS
1
ITEM: BOX BOUNDS mm mm mm
-3.5977856265449347e+01 7.0000000000000000e+00
-7.4141411846587060e+00 1.0055410294224069e+01
-8.2915399999999995e+00 1.0455940727005444e+01
ITEM: ATOMS id type v_atom_cmx v_atom_cmy v_atom_cmz
866 2 -27.5794 1.37689 1.09555
ITEM: TIMESTEP
499000
ITEM: NUMBER OF ATOMS
1
ITEM: BOX BOUNDS mm mm mm
-3.6131686188939909e+01 7.0000000000000000e+00
-7.2937571861356876e+00 1.0168217545609926e+01
-8.2915399999999995e+00 1.0494988731894646e+01
ITEM: ATOMS id type v_atom_cmx v_atom_cmy v_atom_cmz
866 2 -27.9781 1.39959 1.12122
ITEM: TIMESTEP
500000
ITEM: NUMBER OF ATOMS
1
ITEM: BOX BOUNDS mm mm mm
-3.6614496518485389e+01 7.0000000000000000e+00
-7.3366034798523900e+00 1.0327389122577861e+01
-8.2915399999999995e+00 1.0463488727107688e+01
ITEM: ATOMS id type v_atom_cmx v_atom_cmy v_atom_cmz
866 2 -28.3482 1.41343 1.13245
ITEM: TIMESTEP
501000
ITEM: NUMBER OF ATOMS
1
ITEM: BOX BOUNDS mm mm mm
-3.6792226226328609e+01 7.0000000000000000e+00
-7.2594457328582216e+00 1.0192946441529664e+01
-8.2915399999999995e+00 1.0572480997045650e+01
ITEM: ATOMS id type v_atom_cmx v_atom_cmy v_atom_cmz
866 2 -28.7534 1.39471 1.13916
ITEM: TIMESTEP
502000
ITEM: NUMBER OF ATOMS
1
ITEM: BOX BOUNDS mm mm mm
-3.7291958166685774e+01 7.0000000000000000e+00
-7.1980074548524113e+00 1.0458570529310004e+01
-8.2915399999999995e+00 1.0488723711767737e+01
ITEM: ATOMS id type v_atom_cmx v_atom_cmy v_atom_cmz
866 2 -29.1206 1.43832 1.14628
ITEM: TIMESTEP
503000
ITEM: NUMBER OF ATOMS
1
ITEM: BOX BOUNDS mm mm mm
-3.7514474430017806e+01 7.0000000000000000e+00
-7.3741651480565498e+00 1.0480927974694211e+01
-8.2915399999999995e+00 1.0469951936199546e+01
ITEM: ATOMS id type v_atom_cmx v_atom_cmy v_atom_cmz
866 2 -29.4953 1.39725 1.13932
ITEM: TIMESTEP
504000
ITEM: NUMBER OF ATOMS
1
ITEM: BOX BOUNDS mm mm mm
-3.7925672849419449e+01 7.0000000000000000e+00
-7.3609871996279610e+00 1.0402968515921943e+01
-8.2915399999999995e+00 1.0836350475398866e+01
ITEM: ATOMS id type v_atom_cmx v_atom_cmy v_atom_cmz
866 2 -29.8743 1.38886 1.19177
ITEM: TIMESTEP
505000
ITEM: NUMBER OF ATOMS
1
ITEM: BOX BOUNDS mm mm mm
-3.8835143880811316e+01 7.0000000000000000e+00
-7.3501511485659732e+00 1.0397477297293992e+01
-8.2915399999999995e+00 1.0848586608949573e+01
ITEM: ATOMS id type v_atom_cmx v_atom_cmy v_atom_cmz
866 2 -30.2663 1.37215 1.25638
ITEM: TIMESTEP
506000
ITEM: NUMBER OF ATOMS
1
ITEM: BOX BOUNDS mm mm mm
-3.8976092583181689e+01 7.0000000000000000e+00
-7.4547544259036664e+00 1.0426719706875195e+01
-8.2915399999999995e+00 1.0970037893584983e+01
ITEM: ATOMS id type v_atom_cmx v_atom_cmy v_atom_cmz
866 2 -30.6259 1.36273 1.25498
ITEM: TIMESTEP
507000
ITEM: NUMBER OF ATOMS
1
ITEM: BOX BOUNDS mm mm mm
-3.9436119653940423e+01 7.0000000000000000e+00
-7.5934800365614477e+00 1.0382861563637512e+01
-8.2915399999999995e+00 1.0689001447286604e+01
ITEM: ATOMS id type v_atom_cmx v_atom_cmy v_atom_cmz
866 2 -30.9948 1.37264 1.29793
ITEM: TIMESTEP
508000
ITEM: NUMBER OF ATOMS
1
ITEM: BOX BOUNDS mm mm mm
-3.9839181761503831e+01 7.0000000000000000e+00
-7.7500307224416476e+00 1.0419030004634530e+01
-8.2915399999999995e+00 1.0606887005683291e+01
ITEM: ATOMS id type v_atom_cmx v_atom_cmy v_atom_cmz
866 2 -31.3867 1.32574 1.26756
ITEM: TIMESTEP
509000
ITEM: NUMBER OF ATOMS
1
ITEM: BOX BOUNDS mm mm mm
-3.9724009582073727e+01 7.0000000000000000e+00
-7.7580645905624106e+00 1.0487363169617355e+01
-8.2915399999999995e+00 1.0627694965376302e+01
ITEM: ATOMS id type v_atom_cmx v_atom_cmy v_atom_cmz
866 2 -31.7409 1.35734 1.25389
ITEM: TIMESTEP
510000
ITEM: NUMBER OF ATOMS
1
ITEM: BOX BOUNDS mm mm mm
-3.9877590082510601e+01 7.0000000000000000e+00
-7.7512781894925817e+00 1.0595077706023245e+01
-8.2915399999999995e+00 1.0685521670133431e+01
ITEM: ATOMS id type v_atom_cmx v_atom_cmy v_atom_cmz
866 2 -32.126 1.38742 1.24257
ITEM: TIMESTEP
511000
ITEM: NUMBER OF ATOMS
1
ITEM: BOX BOUNDS mm mm mm
-4.0334816005450989e+01 7.0000000000000000e+00
-7.7012915745687947e+00 1.0502884300123300e+01
-8.2915399999999995e+00 1.0646684294549036e+01
ITEM: ATOMS id type v_atom_cmx v_atom_cmy v_atom_cmz
866 2 -32.5263 1.36171 1.30603
ITEM: TIMESTEP
512000
ITEM: NUMBER OF ATOMS
1
ITEM: BOX BOUNDS mm mm mm
-4.0887216979790836e+01 7.0000000000000000e+00
-7.7229934980851871e+00 1.0643983201444518e+01
-8.2915399999999995e+00 1.0852673676494026e+01
ITEM: ATOMS id type v_atom_cmx v_atom_cmy v_atom_cmz
866 2 -32.919 1.39541 1.36107
ITEM: TIMESTEP
513000
ITEM: NUMBER OF ATOMS
1
ITEM: BOX BOUNDS mm mm mm
-4.1423951463615680e+01 7.0000000000000000e+00
-7.6880744812847315e+00 1.0773964397996840e+01
-8.2915399999999995e+00 1.0955412181453417e+01
ITEM: ATOMS id type v_atom_cmx v_atom_cmy v_atom_cmz
866 2 -33.306 1.34734 1.38489
ITEM: TIMESTEP
514000
ITEM: NUMBER OF ATOMS
1
ITEM: BOX BOUNDS mm mm mm
-4.1578161804507545e+01 7.0000000000000000e+00
-7.8527634691041142e+00 1.0908545129672177e+01
-8.2915399999999995e+00 1.1009056100364305e+01
ITEM: ATOMS id type v_atom_cmx v_atom_cmy v_atom_cmz
866 2 -33.6706 1.34228 1.37826
ITEM: TIMESTEP
515000
ITEM: NUMBER OF ATOMS
1
ITEM: BOX BOUNDS mm mm mm
-4.2128162350304763e+01 7.0000000000000000e+00
-7.9459878205438406e+00 1.0818035606228884e+01