ITEM: TIMESTEP
415000
ITEM: NUMBER OF ATOMS
1
ITEM: BOX BOUNDS mm mm mm
-8.4907939792903147e+00 9.0505346943889471e+00
-7.8769503445349951e+00 9.6248673006926726e+00
-8.2915399999999995e+00 8.8136852613398133e+00
ITEM: ATOMS id type x y z
866 2 0.348951 1.03859 0.939341
ITEM: TIMESTEP
416000
ITEM: NUMBER OF ATOMS
1
ITEM: BOX BOUNDS mm mm mm
-9.2255448393291672e+00 8.9093944690968723e+00
-7.9383662472964494e+00 9.6102832598697674e+00
-8.2915399999999995e+00 8.8225788105641563e+00
ITEM: ATOMS id type x y z
866 2 0.275168 0.954509 0.913346
ITEM: TIMESTEP
417000
ITEM: NUMBER OF ATOMS
1
ITEM: BOX BOUNDS mm mm mm
-9.2516673706471160e+00 8.8891455537528703e+00
-7.8496623221429340e+00 9.5973504151725209e+00
-8.2915399999999995e+00 9.0148424053490590e+00
ITEM: ATOMS id type x y z
866 2 0.287266 0.930501 0.925083
ITEM: TIMESTEP
418000
ITEM: NUMBER OF ATOMS
1
ITEM: BOX BOUNDS mm mm mm
-9.4101018164199903e+00 8.9718448698743654e+00
-7.7801078281524836e+00 9.6802097326591809e+00
-8.2915399999999995e+00 8.8785587385229352e+00
ITEM: ATOMS id type x y z
866 2 0.235233 0.965226 0.922505
ITEM: TIMESTEP
419000
ITEM: NUMBER OF ATOMS
1
ITEM: BOX BOUNDS mm mm mm
-9.2208481354204022e+00 8.6668036892935003e+00
-7.7300980598233693e+00 9.7043414424234236e+00
-8.2915399999999995e+00 8.7540745493149306e+00
ITEM: ATOMS id type x y z
866 2 0.15768 0.951456 0.924693
ITEM: TIMESTEP
420000
ITEM: NUMBER OF ATOMS
1
ITEM: BOX BOUNDS mm mm mm
-9.2916109893665197e+00 8.6726494059669648e+00
-7.7828985547523022e+00 9.7310162686672150e+00
-8.2915399999999995e+00 8.7730797484305185e+00
ITEM: ATOMS id type x y z
866 2 -0.00754926 0.935693 0.86419
ITEM: TIMESTEP
421000
ITEM: NUMBER OF ATOMS
1
ITEM: BOX BOUNDS mm mm mm
-9.5496968816780790e+00 8.3181664490810423e+00
-7.7099975855758904e+00 9.7784142921500319e+00
-8.2915399999999995e+00 8.9539055095362610e+00
ITEM: ATOMS id type x y z
866 2 -0.141882 0.982214 0.808531
ITEM: TIMESTEP
422000
ITEM: NUMBER OF ATOMS
1
ITEM: BOX BOUNDS mm mm mm
-9.1897146281524922e+00 8.3815238708152329e+00
-7.7829450383521026e+00 9.8066849445372775e+00
-8.2915399999999995e+00 9.4438536007522949e+00
ITEM: ATOMS id type x y z
866 2 -0.289324 0.985316 0.82438
ITEM: TIMESTEP
423000
ITEM: NUMBER OF ATOMS
1
ITEM: BOX BOUNDS mm mm mm
-9.4436996295049909e+00 8.3107053293169777e+00
-7.7044234427624039e+00 9.7686680329119717e+00
-8.2915399999999995e+00 9.2530856311808360e+00
ITEM: ATOMS id type x y z
866 2 -0.401828 1.02806 0.885695
ITEM: TIMESTEP
424000
ITEM: NUMBER OF ATOMS
1
ITEM: BOX BOUNDS mm mm mm
-9.5738886340536382e+00 7.9160948852209669e+00
-7.7378182820390888e+00 9.7596151047637587e+00
-8.2915399999999995e+00 9.0790195684364861e+00
ITEM: ATOMS id type x y z
866 2 -0.534281 1.05879 0.884387
ITEM: TIMESTEP
425000
ITEM: NUMBER OF ATOMS
1
ITEM: BOX BOUNDS mm mm mm
-1.0309921385583921e+01 7.6653050537276188e+00
-7.7702971596785808e+00 9.7992579485794060e+00
-8.2915399999999995e+00 9.1005213280977699e+00
ITEM: ATOMS id type x y z
866 2 -0.602855 1.0679 0.937582
ITEM: TIMESTEP
426000
ITEM: NUMBER OF ATOMS
1
ITEM: BOX BOUNDS mm mm mm
-1.0687745103867371e+01 7.4369645128210591e+00
-7.7982107332650807e+00 9.8645061399716560e+00
-8.2915399999999995e+00 9.0570030315776595e+00
ITEM: ATOMS id type x y z
866 2 -0.803951 1.05794 0.946099
ITEM: TIMESTEP
427000
ITEM: NUMBER OF ATOMS
1
ITEM: BOX BOUNDS mm mm mm
-1.0793265509611327e+01 7.3412307910276482e+00
-8.0700622636058963e+00 9.8907001539436141e+00
-8.2915399999999995e+00 9.1461919041771100e+00
ITEM: ATOMS id type x y z
866 2 -1.02265 1.12898 0.992211
ITEM: TIMESTEP
428000
ITEM: NUMBER OF ATOMS
1
ITEM: BOX BOUNDS mm mm mm
-1.0835915523348387e+01 7.1059107694860240e+00
-8.1764069663299388e+00 9.8397461784568669e+00
-8.2915399999999995e+00 9.1195211930659372e+00
ITEM: ATOMS id type x y z
866 2 -1.25707 1.11521 1.02236
ITEM: TIMESTEP
429000
ITEM: NUMBER OF ATOMS
1
ITEM: BOX BOUNDS mm mm mm
-1.1310492638665975e+01 7.0000000000000000e+00
-8.2029248280344529e+00 9.7553063828513213e+00
-8.2915399999999995e+00 9.3019183558141272e+00
ITEM: ATOMS id type x y z
866 2 -1.39936 1.13015 1.01235
ITEM: TIMESTEP
430000
ITEM: NUMBER OF ATOMS
1
ITEM: BOX BOUNDS mm mm mm
-1.1708134829071538e+01 7.0000000000000000e+00
-8.1820236912140789e+00 9.8317868234605221e+00
-8.2915399999999995e+00 9.0617012919003024e+00
ITEM: ATOMS id type x y z
866 2 -1.53517 1.12203 0.969069
ITEM: TIMESTEP
431000
ITEM: NUMBER OF ATOMS
1
ITEM: BOX BOUNDS mm mm mm
-1.1539442437644412e+01 7.0000000000000000e+00
-8.3035607958081048e+00 9.8913670010562775e+00
-8.2915399999999995e+00 9.1333180005065095e+00
ITEM: ATOMS id type x y z
866 2 -1.77394 1.13957 0.981113
ITEM: TIMESTEP
432000
ITEM: NUMBER OF ATOMS
1
ITEM: BOX BOUNDS mm mm mm
-1.1647546445379383e+01 7.0000000000000000e+00
-8.2103093435888486e+00 1.0000792421403013e+01
-8.2915399999999995e+00 9.1768485815656948e+00
ITEM: ATOMS id type x y z
866 2 -1.9255 1.12542 0.98548
ITEM: TIMESTEP
433000
ITEM: NUMBER OF ATOMS
1
ITEM: BOX BOUNDS mm mm mm
-1.2096598015763767e+01 7.0000000000000000e+00
-8.2443655348856222e+00 1.0105972259210791e+01
-8.2915399999999995e+00 9.2670552026145501e+00
ITEM: ATOMS id type x y z
866 2 -2.14061 1.14062 0.952717
ITEM: TIMESTEP
434000
ITEM: NUMBER OF ATOMS
1
ITEM: BOX BOUNDS mm mm mm
-1.2951866176877626e+01 7.0000000000000000e+00
-8.1599328392428383e+00 1.0141304588533941e+01
-8.2915399999999995e+00 9.2506825949184233e+00
ITEM: ATOMS id type x y z
866 2 -2.36902 1.18744 0.923086
ITEM: TIMESTEP
435000
ITEM: NUMBER OF ATOMS
1
ITEM: BOX BOUNDS mm mm mm
-1.2918490142359047e+01 7.0000000000000000e+00
-8.0044501470569447e+00 1.0502356472632478e+01
-8.2915399999999995e+00 9.1982587454105396e+00
ITEM: ATOMS id type x y z
866 2 -2.56569 1.19446 0.874826
ITEM: TIMESTEP
436000
ITEM: NUMBER OF ATOMS
1
ITEM: BOX BOUNDS mm mm mm
-1.3253137236922202e+01 7.0000000000000000e+00
-7.5009106918983788e+00 1.0336284418200972e+01
-8.2915399999999995e+00 9.3323053592431311e+00
ITEM: ATOMS id type x y z
866 2 -2.80844 1.17683 0.936922
ITEM: TIMESTEP
437000
ITEM: NUMBER OF ATOMS
1
ITEM: BOX BOUNDS mm mm mm
-1.3145696347584325e+01 7.0000000000000000e+00
-7.5842073632688836e+00 1.0164396440737800e+01
-8.2915399999999995e+00 9.3599115435418749e+00
ITEM: ATOMS id type x y z
866 2 -3.06254 1.24092 0.979658
ITEM: TIMESTEP
438000
ITEM: NUMBER OF ATOMS
1
ITEM: BOX BOUNDS mm mm mm
-1.4036306349938544e+01 7.0000000000000000e+00
-7.7934242120561201e+00 1.0022675527103120e+01
-8.2915399999999995e+00 9.4287474969498248e+00
ITEM: ATOMS id type x y z
866 2 -3.3782 1.17014 0.961668
ITEM: TIMESTEP
439000
ITEM: NUMBER OF ATOMS
1
ITEM: BOX BOUNDS mm mm mm
-1.4109806898664944e+01 7.0000000000000000e+00
-7.5300359161392771e+00 9.8062573583859205e+00
-8.2915399999999995e+00 9.5069943298987400e+00
ITEM: ATOMS id type x y z
866 2 -3.63394 1.14016 1.00661
ITEM: TIMESTEP
440000
ITEM: NUMBER OF ATOMS
1
ITEM: BOX BOUNDS mm mm mm
-1.4419780689746407e+01 7.0000000000000000e+00
-7.6619642535016341e+00 9.8740767966135756e+00
-8.2915399999999995e+00 9.5354081555230668e+00
ITEM: ATOMS id type x y z
866 2 -3.9831 1.11391 1.0029
ITEM: TIMESTEP
441000
ITEM: NUMBER OF ATOMS
1
ITEM: BOX BOUNDS mm mm mm
-1.4868597482679970e+01 7.0000000000000000e+00
-7.6530646062400969e+00 9.8345215854116219e+00
-8.2915399999999995e+00 9.7094454884658585e+00
ITEM: ATOMS id type x y z
866 2 -4.37798 1.07564 1.08738
ITEM: TIMESTEP
442000
ITEM: NUMBER OF ATOMS
1
ITEM: BOX BOUNDS mm mm mm
-1.4611542838404679e+01 7.0000000000000000e+00
-7.6875332137372743e+00 9.6452698321250665e+00
-8.2915399999999995e+00 9.6599966477513650e+00
ITEM: ATOMS id type x y z
866 2 -4.63286 1.10703 1.04626
ITEM: TIMESTEP
443000
ITEM: NUMBER OF ATOMS
1
ITEM: BOX BOUNDS mm mm mm
-1.5094662566133811e+01 7.0000000000000000e+00
-7.7494990604233136e+00 9.5647595408435606e+00
-8.2915399999999995e+00 9.7053969062603436e+00
ITEM: ATOMS id type x y z
866 2 -5.00886 1.09834 1.01072
ITEM: TIMESTEP
444000
ITEM: NUMBER OF ATOMS
1
ITEM: BOX BOUNDS mm mm mm
-1.5489737838465869e+01 7.0000000000000000e+00
-7.7161316923359289e+00 9.6330729480361228e+00
-8.2915399999999995e+00 9.9335156375004505e+00
ITEM: ATOMS id type x y z
866 2 -5.33508 1.08594 1.01499
ITEM: TIMESTEP
445000
ITEM: NUMBER OF ATOMS
1
ITEM: BOX BOUNDS mm mm mm
-1.5837862322330773e+01 7.0000000000000000e+00
-7.8067329179764089e+00 9.6550971813988333e+00
-8.2915399999999995e+00 9.9270702820027825e+00
ITEM: ATOMS id type x y z
866 2 -5.62914 1.07393 0.982791
ITEM: TIMESTEP
446000
ITEM: NUMBER OF ATOMS
1
ITEM: BOX BOUNDS mm mm mm
-1.6372973370736407e+01 7.0000000000000000e+00
-7.9095169173425237e+00 9.6154666044412505e+00
-8.2915399999999995e+00 9.7236343645322183e+00
ITEM: ATOMS id type x y z
866 2 -5.92578 1.07828 0.98634
ITEM: TIMESTEP
447000
ITEM: NUMBER OF ATOMS
1
ITEM: BOX BOUNDS mm mm mm
-1.6551614349853580e+01 7.0000000000000000e+00
-7.8901132808638303e+00 9.6360007593328838e+00
-8.2915399999999995e+00 9.6505205685269928e+00
ITEM: ATOMS id type x y z
866 2 -6.24761 1.03211 0.964441
ITEM: TIMESTEP
448000
ITEM: NUMBER OF ATOMS
1
ITEM: BOX BOUNDS mm mm mm
-1.7141753001398040e+01 7.0000000000000000e+00
-7.8641816852678206e+00 9.7711467702276167e+00
-8.2915399999999995e+00 9.7502521098343848e+00
ITEM: ATOMS id type x y z
866 2 -6.60949 1.11123 0.967145
ITEM: TIMESTEP
449000
ITEM: NUMBER OF ATOMS
1
ITEM: BOX BOUNDS mm mm mm
-1.7334215344693042e+01 7.0000000000000000e+00
-7.9627362525858389e+00 9.6313742922921346e+00
-8.2915399999999995e+00 9.7874206241531052e+00
ITEM: ATOMS id type x y z
866 2 -7.01811 1.06145 0.973947
ITEM: TIMESTEP
450000
ITEM: NUMBER OF ATOMS
1
ITEM: BOX BOUNDS mm mm mm
-1.7814952865991362e+01 7.0000000000000000e+00
-7.9455018335995868e+00 9.4370227820812023e+00
-8.2915399999999995e+00 9.7415103082260117e+00
ITEM: ATOMS id type x y z
866 2 -7.32154 1.00453 0.952686
ITEM: TIMESTEP
451000
ITEM: NUMBER OF ATOMS
1
ITEM: BOX BOUNDS mm mm mm
-1.8279134931210031e+01 7.0000000000000000e+00
-7.9552612772076996e+00 9.5703003763822831e+00
-8.2915399999999995e+00 9.8011713177357027e+00
ITEM: ATOMS id type x y z
866 2 -7.64539 1.04022 0.900588
ITEM: TIMESTEP
452000
ITEM: NUMBER OF ATOMS
1
ITEM: BOX BOUNDS mm mm mm
-1.8440121209125603e+01 7.0000000000000000e+00
-8.0324706535995389e+00 9.5915271050514566e+00
-8.2915399999999995e+00 9.8269647331018408e+00
ITEM: ATOMS id type x y z
866 2 -8.06322 1.05273 0.852625
ITEM: TIMESTEP
453000
ITEM: NUMBER OF ATOMS
1
ITEM: BOX BOUNDS mm mm mm
-1.8711949676128686e+01 7.0000000000000000e+00
-8.1314546947894684e+00 9.7032494892436958e+00
-8.2915399999999995e+00 9.8560601765719387e+00
ITEM: ATOMS id type x y z
866 2 -8.50631 1.00887 0.820834
ITEM: TIMESTEP
454000
ITEM: NUMBER OF ATOMS
1
ITEM: BOX BOUNDS mm mm mm
-1.8826288818451467e+01 7.0000000000000000e+00
-7.9737030108093840e+00 9.6967243497668356e+00
-8.2915399999999995e+00 9.9133122339120412e+00
ITEM: ATOMS id type x y z
866 2 -8.91887 1.00331 0.805371
ITEM: TIMESTEP
455000
ITEM: NUMBER OF ATOMS
1
ITEM: BOX BOUNDS mm mm mm
-1.9624070162769129e+01 7.0000000000000000e+00
-7.8882744746866198e+00 9.6247786557997621e+00
-8.2915399999999995e+00 1.0059078661964829e+01
ITEM: ATOMS id type x y z
866 2 -9.39437 0.965299 0.799885
ITEM: TIMESTEP
456000
ITEM: NUMBER OF ATOMS
1
ITEM: BOX BOUNDS mm mm mm
-2.0234018652187853e+01 7.0000000000000000e+00
-7.9056480757922261e+00 9.6751857980668206e+00
-8.2915399999999995e+00 9.9651350432914239e+00
ITEM: ATOMS id type x y z
866 2 -9.76739 0.939632 0.824064
ITEM: TIMESTEP
457000
ITEM: NUMBER OF ATOMS
1
ITEM: BOX BOUNDS mm mm mm
-2.0412976259228259e+01 7.0000000000000000e+00
-7.9366192665414470e+00 9.5595810163122312e+00
-8.2915399999999995e+00 9.6983515225883501e+00
ITEM: ATOMS id type x y z
866 2 -10.1987 0.931325 0.863952
ITEM: TIMESTEP
458000
ITEM: NUMBER OF ATOMS
1
ITEM: BOX BOUNDS mm mm mm
-2.0762215392197373e+01 7.0000000000000000e+00
-7.9485972311657314e+00 9.5656830282466991e+00
-8.2915399999999995e+00 9.6384666149212013e+00
ITEM: ATOMS id type x y z
866 2 -10.5005 0.913041 0.805556
ITEM: TIMESTEP
459000
ITEM: NUMBER OF ATOMS
1
ITEM: BOX BOUNDS mm mm mm
-2.1323537123670409e+01 7.0000000000000000e+00
-7.9113740166122897e+00 9.6021353087394488e+00
-8.2915399999999995e+00 9.6766734765426197e+00
ITEM: ATOMS id type x y z
866 2 -10.8319 0.824343 0.87709
ITEM: TIMESTEP
460000
ITEM: NUMBER OF ATOMS
1
ITEM: BOX BOUNDS mm mm mm
-2.1774139623418471e+01 7.0000000000000000e+00
-7.9093551283897110e+00 9.5482168411880881e+00
-8.2915399999999995e+00 9.6513683014652791e+00
ITEM: ATOMS id type x y z
866 2 -11.2129 0.849909 0.87873
ITEM: TIMESTEP
461000
ITEM: NUMBER OF ATOMS
1
ITEM: BOX BOUNDS mm mm mm
-2.2295786681029657e+01 7.0000000000000000e+00
-8.1166035984095348e+00 9.5946197488300111e+00
-8.2915399999999995e+00 9.5148998279836050e+00
ITEM: ATOMS id type x y z
866 2 -11.5429 0.859642 0.943794
ITEM: TIMESTEP
462000
ITEM: NUMBER OF ATOMS
1
ITEM: BOX BOUNDS mm mm mm
-2.2677107388570921e+01 7.0000000000000000e+00
-7.9960073998669996e+00 9.6367152769376663e+00
-8.2915399999999995e+00 9.6689112278679730e+00
ITEM: ATOMS id type x y z
866 2 -11.8964 0.838932 0.874901
ITEM: TIMESTEP
463000
ITEM: NUMBER OF ATOMS
1
ITEM: BOX BOUNDS mm mm mm
-2.3041834238991104e+01 7.0000000000000000e+00
-7.8222351179621077e+00 9.6501808162239957e+00
-8.2915399999999995e+00 9.7356254868068604e+00
ITEM: ATOMS id type x y z
866 2 -12.397 0.826768 0.855715
ITEM: TIMESTEP
464000
ITEM: NUMBER OF ATOMS
1
ITEM: BOX BOUNDS mm mm mm
-2.3332816447464584e+01 7.0000000000000000e+00
-7.7922008569261374e+00 9.5619866493300307e+00
-8.2915399999999995e+00 9.5875924132207917e+00
ITEM: ATOMS id type x y z
866 2 -12.6948 0.786566 0.891925
ITEM: TIMESTEP
465000
ITEM: NUMBER OF ATOMS
1
ITEM: BOX BOUNDS mm mm mm
-2.3373321615764510e+01 7.0000000000000000e+00
-7.8446831048212227e+00 9.3730241365099634e+00
-8.2915399999999995e+00 9.6354190619398761e+00
ITEM: ATOMS id type x y z
866 2 -13.1231 0.717422 0.880773
ITEM: TIMESTEP
466000
ITEM: NUMBER OF ATOMS
1
ITEM: BOX BOUNDS mm mm mm
-2.3639980808071027e+01 7.0000000000000000e+00
-8.1132999885672881e+00 9.2642720652153763e+00
-8.2915399999999995e+00 9.6183704848569533e+00
ITEM: ATOMS id type x y z
866 2 -13.5331 0.700743 0.905393
ITEM: TIMESTEP
467000
ITEM: NUMBER OF ATOMS
1
ITEM: BOX BOUNDS mm mm mm
-2.4425382852883811e+01 7.0000000000000000e+00
-8.0109554527335973e+00 9.4121430543080891e+00
-8.2915399999999995e+00 9.4707122054946371e+00
ITEM: ATOMS id type x y z
866 2 -13.9168 0.697577 0.891529
ITEM: TIMESTEP
468000
ITEM: NUMBER OF ATOMS
1
ITEM: BOX BOUNDS mm mm mm
-2.4490891777031852e+01 7.0000000000000000e+00
-8.0337804337826952e+00 9.4260368536849839e+00
-8.3047544238405155e+00 9.4877728303989901e+00
ITEM: ATOMS id type x y z
866 2 -14.2727 0.673562 0.848748
ITEM: TIMESTEP
469000
ITEM: NUMBER OF ATOMS
1
ITEM: BOX BOUNDS mm mm mm
-2.5750773746918586e+01 7.0000000000000000e+00
-8.0746458104060679e+00 9.3912678283032527e+00
-8.3218093503869941e+00 9.8371663933227769e+00
ITEM: ATOMS id type x y z
866 2 -14.5869 0.647506 0.78121
ITEM: TIMESTEP
470000
ITEM: NUMBER OF ATOMS
1
ITEM: BOX BOUNDS mm mm mm
-2.5728335779273916e+01 7.0000000000000000e+00
-8.0593374316191149e+00 9.3236911616499469e+00
-8.4543600902888176e+00 9.9834193932148914e+00
ITEM: ATOMS id type x y z
866 2 -15.0439 0.62094 0.854061
ITEM: TIMESTEP
471000
ITEM: NUMBER OF ATOMS
1
ITEM: BOX BOUNDS mm mm mm
-2.5776798474142360e+01 7.0000000000000000e+00
-7.9151906262934233e+00 9.3933396664932225e+00
-8.8651584380947437e+00 9.8621599741001074e+00
ITEM: ATOMS id type x y z
866 2 -15.409 0.692113 0.793633
ITEM: TIMESTEP
472000
ITEM: NUMBER OF ATOMS
1
ITEM: BOX BOUNDS mm mm mm
-2.5956807540253386e+01 7.0000000000000000e+00
-8.0840506466033055e+00 9.4289776860430976e+00
-8.7854757046096559e+00 9.8887451319536748e+00
ITEM: ATOMS id type x y z
866 2 -15.8103 0.713638 0.737266
ITEM: TIMESTEP
473000
ITEM: NUMBER OF ATOMS
1
ITEM: BOX BOUNDS mm mm mm
-2.6260989884240313e+01 7.0000000000000000e+00
-8.0761761915893562e+00 9.4906578836355600e+00
-8.8194944914407429e+00 9.9777515216168364e+00
ITEM: ATOMS id type x y z
866 2 -16.2309 0.71732 0.724692
ITEM: TIMESTEP
474000
ITEM: NUMBER OF ATOMS
1
ITEM: BOX BOUNDS mm mm mm
-2.6426700559825605e+01 7.0000000000000000e+00
-8.0210970022143808e+00 9.3652712214381388e+00
-8.6495139215330266e+00 9.9586972747677152e+00
ITEM: ATOMS id type x y z
866 2 -16.6158 0.732668 0.73307
ITEM: TIMESTEP
475000
ITEM: NUMBER OF ATOMS
1
ITEM: BOX BOUNDS mm mm mm
-2.7204068939478983e+01 7.0000000000000000e+00
-8.2242495857886286e+00 9.6304873004796949e+00
-8.7751095483919670e+00 9.9462465177856760e+00
ITEM: ATOMS id type x y z
866 2 -16.9073 0.780539 0.902403
ITEM: TIMESTEP
476000
ITEM: NUMBER OF ATOMS
1
ITEM: BOX BOUNDS mm mm mm
-2.7271250785489372e+01 7.0000000000000000e+00
-8.1440332437057030e+00 9.6648920419887201e+00
-8.7258612122342800e+00 9.7525524059974309e+00
ITEM: ATOMS id type x y z
866 2 -17.2905 0.771749 0.855231
ITEM: TIMESTEP
477000
ITEM: NUMBER OF ATOMS
1
ITEM: BOX BOUNDS mm mm mm
-2.7818971518037529e+01 7.0000000000000000e+00
-8.1943069135983446e+00 9.7129544574403592e+00
-8.5343062769803737e+00 9.4576194084415093e+00
ITEM: ATOMS id type x y z
866 2 -17.7557 0.858012 0.833857
ITEM: TIMESTEP
478000
ITEM: NUMBER OF ATOMS
1
ITEM: BOX BOUNDS mm mm mm
-2.8168966560786959e+01 7.0000000000000000e+00
-8.2088249194970135e+00 9.6943038931429726e+00
-8.3317836404638737e+00 9.5531971691839797e+00
ITEM: ATOMS id type x y z
866 2 -18.1416 0.877817 0.807901
ITEM: TIMESTEP
479000
ITEM: NUMBER OF ATOMS
1
ITEM: BOX BOUNDS mm mm mm
-2.8481935692406484e+01 7.0000000000000000e+00
-8.3204065489144057e+00 9.6596278366659636e+00
-8.4716230957068817e+00 9.4254534420792275e+00
ITEM: ATOMS id type x y z
866 2 -18.575 0.870774 0.733762
ITEM: TIMESTEP
480000
ITEM: NUMBER OF ATOMS
1
ITEM: BOX BOUNDS mm mm mm
-2.9121995784562404e+01 7.0000000000000000e+00
-8.4569668122246160e+00 9.6438485163521079e+00
-8.5073941353298501e+00 9.3648921599671784e+00
ITEM: ATOMS id type x y z
866 2 -18.9773 0.767456 0.731071
ITEM: TIMESTEP
481000
ITEM: NUMBER OF ATOMS
1
ITEM: BOX BOUNDS mm mm mm
-2.9240535280293134e+01 7.0000000000000000e+00
-8.6360836329553070e+00 9.4704600065483291e+00
-8.5298367703116824e+00 9.4234434072873423e+00
ITEM: ATOMS id type x y z
866 2 -19.4383 0.71584 0.615175
ITEM: TIMESTEP
482000
ITEM: NUMBER OF ATOMS
1
ITEM: BOX BOUNDS mm mm mm
-2.9667431738027197e+01 7.0000000000000000e+00
-8.6469560141131119e+00 9.1859606509628584e+00
-8.3202392130673211e+00 9.3495079281533968e+00
ITEM: ATOMS id type x y z
866 2 -19.7587 0.64692 0.629659
ITEM: TIMESTEP
483000
ITEM: NUMBER OF ATOMS
1
ITEM: BOX BOUNDS mm mm mm
-3.0228371496080346e+01 7.0000000000000000e+00
-8.7742046287149957e+00 9.2850550530916252e+00
-8.2915399999999995e+00 9.5730246518861897e+00
ITEM: ATOMS id type x y z
866 2 -20.1476 0.642102 0.612001
ITEM: TIMESTEP
484000
ITEM: NUMBER OF ATOMS
1
ITEM: BOX BOUNDS mm mm mm
-3.0828175130689019e+01 7.0000000000000000e+00
-8.8660907390968688e+00 9.4444386650937648e+00
-8.2915399999999995e+00 9.4527386115165140e+00
ITEM: ATOMS id type x y z
866 2 -20.5755 0.67405 0.530793
ITEM: TIMESTEP
485000
ITEM: NUMBER OF ATOMS
1
ITEM: BOX BOUNDS mm mm mm
-3.0753498966872616e+01 7.0000000000000000e+00
-8.7553400721729346e+00 9.5660161065096023e+00
-8.2915399999999995e+00 9.5008462734381638e+00
ITEM: ATOMS id type x y z
866 2 -20.8665 0.659154 0.523905
ITEM: TIMESTEP
486000
ITEM: NUMBER OF ATOMS
1
ITEM: BOX BOUNDS mm mm mm
-3.1105941690587606e+01 7.0000000000000000e+00
-8.6955597252620294e+00 9.6203401836456326e+00
-8.2915399999999995e+00 9.4648258732165260e+00
ITEM: ATOMS id type x y z
866 2 -21.1472 0.71452 0.558332
ITEM: TIMESTEP
487000
ITEM: NUMBER OF ATOMS
1
ITEM: BOX BOUNDS mm mm mm
-3.1572405433961201e+01 7.0000000000000000e+00
-8.5537486466293835e+00 9.4485441147427558e+00
-8.2915399999999995e+00 9.5225363164180248e+00
ITEM: ATOMS id type x y z
866 2 -21.549 0.729332 0.572065
ITEM: TIMESTEP
488000
ITEM: NUMBER OF ATOMS
1
ITEM: BOX BOUNDS mm mm mm
-3.1669062498692497e+01 7.0000000000000000e+00
-8.5211598909368540e+00 9.4910100307144294e+00
-8.2915399999999995e+00 9.7474044397583768e+00
ITEM: ATOMS id type x y z
866 2 -21.8889 0.78963 0.666815
ITEM: TIMESTEP
489000
ITEM: NUMBER OF ATOMS
1
ITEM: BOX BOUNDS mm mm mm
-3.2181680517729681e+01 7.0000000000000000e+00
-7.8845073486049779e+00 9.5483337097247283e+00
-8.2915399999999995e+00 9.7343948752536633e+00
ITEM: ATOMS id type x y z
866 2 -22.1762 0.890158 0.640841
ITEM: TIMESTEP
490000
ITEM: NUMBER OF ATOMS
1
ITEM: BOX BOUNDS mm mm mm
-3.2869754816562647e+01 7.0000000000000000e+00
-7.6778349700732509e+00 9.5431357946252309e+00
-8.2915399999999995e+00 9.7204882222833398e+00
ITEM: ATOMS id type x y z
866 2 -22.4606 0.965333 0.644077
ITEM: TIMESTEP
491000
ITEM: NUMBER OF ATOMS
1
ITEM: BOX BOUNDS mm mm mm
-3.3255838065359448e+01 7.0000000000000000e+00
-7.7595962703076422e+00 9.7574752709509678e+00
-8.2915399999999995e+00 9.7449554856224267e+00
ITEM: ATOMS id type x y z
866 2 -22.8138 0.942307 0.731272
ITEM: TIMESTEP
492000
ITEM: NUMBER OF ATOMS
1
ITEM: BOX BOUNDS mm mm mm
-3.3559688691197721e+01 7.0000000000000000e+00
-7.8539652642969662e+00 9.7707911703578905e+00
-8.2915399999999995e+00 9.9468329051069695e+00
ITEM: ATOMS id type x y z
866 2 -23.0827 1.05922 0.796688
ITEM: TIMESTEP
493000
ITEM: NUMBER OF ATOMS
1
ITEM: BOX BOUNDS mm mm mm
-3.3649371041569509e+01 7.0000000000000000e+00
-7.7849370019693653e+00 9.9726189581337721e+00
-8.2915399999999995e+00 9.9702199768650068e+00
ITEM: ATOMS id type x y z
866 2 -23.511 1.03191 0.819351
ITEM: TIMESTEP
494000
ITEM: NUMBER OF ATOMS
1
ITEM: BOX BOUNDS mm mm mm
-3.4083729244707804e+01 7.0000000000000000e+00
-7.7449944234169816e+00 1.0313191831063799e+01
-8.2915399999999995e+00 9.7942100851336740e+00
ITEM: ATOMS id type x y z
866 2 -23.9843 1.16605 0.852973
ITEM: TIMESTEP
495000
ITEM: NUMBER OF ATOMS
1
ITEM: BOX BOUNDS mm mm mm
-3.4875924260112988e+01 7.0000000000000000e+00
-7.7608966253461418e+00 1.0253736181257729e+01
-8.2915399999999995e+00 9.9912477089585359e+00
ITEM: ATOMS id type x y z
866 2 -24.4162 1.18088 0.880095
ITEM: TIMESTEP
496000
ITEM: NUMBER OF ATOMS
1
ITEM: BOX BOUNDS mm mm mm
-3.5030256240437325e+01 7.0000000000000000e+00
-7.6942904498212892e+00 1.0338721770789755e+01
-8.2915399999999995e+00 1.0013084046716104e+01
ITEM: ATOMS id type x y z
866 2 -24.7961 1.2021 0.888855
ITEM: TIMESTEP
497000
ITEM: NUMBER OF ATOMS
1
ITEM: BOX BOUNDS mm mm mm
-3.5216330360982411e+01 7.0000000000000000e+00
-7.5998941052835525e+00 1.0112005652986857e+01
-8.2915399999999995e+00 1.0285011775617789e+01
ITEM: ATOMS id type x y z
866 2 -25.2132 1.25791 0.903413
ITEM: TIMESTEP
498000
ITEM: NUMBER OF ATOMS
1
ITEM: BOX BOUNDS mm mm mm
-3.5977856265449347e+01 7.0000000000000000e+00
-7.4141411846587060e+00 1.0055410294224069e+01
-8.2915399999999995e+00 1.0455940727005444e+01
ITEM: ATOMS id type x y z
866 2 -25.6058 1.29218 0.933855
ITEM: TIMESTEP
499000
ITEM: NUMBER OF ATOMS
1
ITEM: BOX BOUNDS mm mm mm
-3.6131686188939909e+01 7.0000000000000000e+00
-7.2937571861356876e+00 1.0168217545609926e+01
-8.2915399999999995e+00 1.0494988731894646e+01
ITEM: ATOMS id type x y z
866 2 -25.9288 1.25267 0.906217
ITEM: TIMESTEP
500000
ITEM: NUMBER OF ATOMS
1
ITEM: BOX BOUNDS mm mm mm
-3.6614496518485389e+01 7.0000000000000000e+00
-7.3366034798523900e+00 1.0327389122577861e+01
-8.2915399999999995e+00 1.0463488727107688e+01
ITEM: ATOMS id type x y z
866 2 -26.3233 1.39151 0.871431
ITEM: TIMESTEP
501000
ITEM: NUMBER OF ATOMS
1
ITEM: BOX BOUNDS mm mm mm
-3.6792226226328609e+01 7.0000000000000000e+00
-7.2594457328582216e+00 1.0192946441529664e+01
-8.2915399999999995e+00 1.0572480997045650e+01
ITEM: ATOMS id type x y z
866 2 -26.7379 1.36222 0.931753
ITEM: TIMESTEP
502000
ITEM: NUMBER OF ATOMS
1
ITEM: BOX BOUNDS mm mm mm
-3.7291958166685774e+01 7.0000000000000000e+00
-7.1980074548524113e+00 1.0458570529310004e+01
-8.2915399999999995e+00 1.0488723711767737e+01
ITEM: ATOMS id type x y z
866 2 -26.9954 1.40699 0.867405
ITEM: TIMESTEP
503000
ITEM: NUMBER OF ATOMS
1
ITEM: BOX BOUNDS mm mm mm
-3.7514474430017806e+01 7.0000000000000000e+00
-7.3741651480565498e+00 1.0480927974694211e+01
-8.2915399999999995e+00 1.0469951936199546e+01
ITEM: ATOMS id type x y z
866 2 -27.4229 1.38755 0.878619
ITEM: TIMESTEP
504000
ITEM: NUMBER OF ATOMS
1
ITEM: BOX BOUNDS mm mm mm
-3.7925672849419449e+01 7.0000000000000000e+00
-7.3609871996279610e+00 1.0402968515921943e+01
-8.2915399999999995e+00 1.0836350475398866e+01
ITEM: ATOMS id type x y z
866 2 -27.7915 1.43532 0.996987
ITEM: TIMESTEP
505000
ITEM: NUMBER OF ATOMS
1
ITEM: BOX BOUNDS mm mm mm
-3.8835143880811316e+01 7.0000000000000000e+00
-7.3501511485659732e+00 1.0397477297293992e+01
-8.2915399999999995e+00 1.0848586608949573e+01
ITEM: ATOMS id type x y z
866 2 -28.2108 1.39412 1.08619
ITEM: TIMESTEP
506000
ITEM: NUMBER OF ATOMS
1
ITEM: BOX BOUNDS mm mm mm
-3.8976092583181689e+01 7.0000000000000000e+00
-7.4547544259036664e+00 1.0426719706875195e+01
-8.2915399999999995e+00 1.0970037893584983e+01
ITEM: ATOMS id type x y z
866 2 -28.6671 1.41792 1.07233
ITEM: TIMESTEP
507000
ITEM: NUMBER OF ATOMS
1
ITEM: BOX BOUNDS mm mm mm
-3.9436119653940423e+01 7.0000000000000000e+00
-7.5934800365614477e+00 1.0382861563637512e+01
-8.2915399999999995e+00 1.0689001447286604e+01
ITEM: ATOMS id type x y z
866 2 -29.0332 1.40547 1.13497
ITEM: TIMESTEP
508000
ITEM: NUMBER OF ATOMS
1
ITEM: BOX BOUNDS mm mm mm
-3.9839181761503831e+01 7.0000000000000000e+00
-7.7500307224416476e+00 1.0419030004634530e+01
-8.2915399999999995e+00 1.0606887005683291e+01
ITEM: ATOMS id type x y z
866 2 -29.3919 1.36624 1.10915
ITEM: TIMESTEP
509000
ITEM: NUMBER OF ATOMS
1
ITEM: BOX BOUNDS mm mm mm
-3.9724009582073727e+01 7.0000000000000000e+00
-7.7580645905624106e+00 1.0487363169617355e+01
-8.2915399999999995e+00 1.0627694965376302e+01
ITEM: ATOMS id type x y z
866 2 -29.7589 1.33681 1.09773
ITEM: TIMESTEP
510000
ITEM: NUMBER OF ATOMS
1
ITEM: BOX BOUNDS mm mm mm
-3.9877590082510601e+01 7.0000000000000000e+00
-7.7512781894925817e+00 1.0595077706023245e+01
-8.2915399999999995e+00 1.0685521670133431e+01
ITEM: ATOMS id type x y z
866 2 -30.0694 1.38115 1.02281
ITEM: TIMESTEP
511000
ITEM: NUMBER OF ATOMS
1
ITEM: BOX BOUNDS mm mm mm
-4.0334816005450989e+01 7.0000000000000000e+00
-7.7012915745687947e+00 1.0502884300123300e+01
-8.2915399999999995e+00 1.0646684294549036e+01
ITEM: ATOMS id type x y z
866 2 -30.4305 1.42768 1.0316
ITEM: TIMESTEP
512000
ITEM: NUMBER OF ATOMS
1
ITEM: BOX BOUNDS mm mm mm
-4.0887216979790836e+01 7.0000000000000000e+00
-7.7229934980851871e+00 1.0643983201444518e+01
-8.2915399999999995e+00 1.0852673676494026e+01
ITEM: ATOMS id type x y z
866 2 -30.7092 1.45866 1.15549
ITEM: TIMESTEP
513000
ITEM: NUMBER OF ATOMS
1
ITEM: BOX BOUNDS mm mm mm
-4.1423951463615680e+01 7.0000000000000000e+00
-7.6880744812847315e+00 1.0773964397996840e+01
-8.2915399999999995e+00 1.0955412181453417e+01
ITEM: ATOMS id type x y z
866 2 -31.2393 1.43745 1.12831
ITEM: TIMESTEP
514000
ITEM: NUMBER OF ATOMS
1
ITEM: BOX BOUNDS mm mm mm
-4.1578161804507545e+01 7.0000000000000000e+00
-7.8527634691041142e+00 1.0908545129672177e+01
-8.2915399999999995e+00 1.1009056100364305e+01
ITEM: ATOMS id type x y z
866 2 -31.6885 1.35584 1.09571
ITEM: TIMESTEP
515000
ITEM: NUMBER OF ATOMS
1
ITEM: BOX BOUNDS mm mm mm
-4.2128162350304763e+01 7.0000000000000000e+00
-7.9459878205438406e+00 1.0818035606228884e+01
-8.2915399999999995e+00 1.0903822773201354e+01
ITEM: ATOMS id type x y z
866 2 -32.1362 1.38362 1.07995
